ITEM: TIMESTEP
0
ITEM: NUMBER OF ATOMS
44850
ITEM: BOX BOUNDS pp pp ss
0 2316.25
0 2316.25
-1.02199 10219.9
ITEM: ATOMS id type mol x y z ix iy iz 
2535 3 34 1970.12 2089.57 6.54 0 1 0 
2536 1 34 1978.4 2089.17 8.49 0 1 0 
2537 2 34 1977.55 2086.7 11.61 0 1 0 
2538 3 34 1976.8 2084.56 14.33 0 1 0 
2539 1 34 1981.25 2086.84 7.43 0 1 0 
2540 2 34 1983.83 2088.92 9.78 0 1 0 
2542 1 34 1984.21 2085.27 5.56 0 1 0 
2543 2 34 1984.15 2088.35 2.9 0 1 0 
2545 1 34 1986.33 2083.21 3.14 0 1 0 
2546 2 34 1982.95 2081.7 1.46 0 1 0 
2547 3 34 1980.01 2080.38 0 0 1 0 
2548 1 34 1988.38 2080.4 1.54 0 1 0 
2549 2 34 1987.78 2078.09 4.84 0 1 0 
2550 3 34 1987.26 2076.08 7.71 0 1 0 
2510 2 34 1953.26 2108.7 21.78 0 1 0 
2511 3 34 1950.47 2108.03 19.72 0 1 0 
2512 1 34 1958.45 2106.7 22.38 0 1 0 
2515 1 34 1961.21 2104.27 21.33 0 1 0 
2522 2 34 1963.14 2099.69 14.98 0 1 0 
2523 3 34 1960.27 2098.79 13.11 0 1 0 
2518 1 34 1964.22 2102.68 19.58 0 1 0 
2519 2 34 1964.67 2106.02 17.3 0 1 0 
2520 3 34 1965.06 2108.93 15.32 0 1 0 
2521 1 34 1966.43 2100.72 17.14 0 1 0 
2524 1 34 1968.43 2097.94 15.43 0 1 0 
2525 2 34 1967.32 2095.34 18.36 0 1 0 
2526 3 34 1966.35 2093.08 20.91 0 1 0 
2527 1 34 1971.23 2095.55 14.38 0 1 0 
2528 2 34 1973.77 2097.4 16.97 0 1 0 
2529 3 34 1975.98 2099 19.22 0 1 0 
2530 1 34 1974.22 2093.98 12.57 0 1 0 
2531 2 34 1974.41 2097.2 10.09 0 1 0 
2532 3 34 1974.58 2100 7.93 0 1 0 
2533 1 34 1976.38 2091.97 10.14 0 1 0 
2534 2 34 1973.03 2090.69 8.21 0 1 0 
2541 3 34 1986.08 2090.74 11.82 0 1 0 
2544 3 34 1984.1 2091.02 0.58 0 1 0 
2508 3 34 1955.52 2117.81 22.74 0 1 0 
2501 2 34 1946.88 2112.67 31.82 0 1 0 
2502 3 34 1945.5 2110.24 33.98 0 1 0 
2503 1 34 1951.19 2112.99 28.27 0 1 0 
2504 2 34 1953.58 2114.32 31.29 0 1 0 
2506 1 34 1954.23 2111.38 26.59 0 1 0 
2507 2 34 1954.92 2114.82 24.53 0 1 0 
2509 1 34 1956.48 2109.47 24.15 0 1 0 
2513 2 34 1957.1 2103.99 25.1 0 1 0 
2514 3 34 1955.92 2101.64 27.46 0 1 0 
2516 2 34 1963.69 2105.86 24.14 0 1 0 
2517 3 34 1965.84 2107.24 26.59 0 1 0 
2476 1 34 1928.53 2133.03 43.24 0 1 0 
2477 2 34 1926.37 2129.95 45.33 0 1 0 
2478 3 34 1924.48 2127.28 47.15 0 1 0 
2479 1 34 1931.16 2130.44 42.16 0 1 0 
2480 2 34 1933.31 2131.22 45.53 0 1 0 
2481 3 34 1935.18 2131.9 48.46 0 1 0 
2482 1 34 1934.23 2128.77 40.59 0 1 0 
2483 2 34 1935.38 2132.35 39.03 0 1 0 
2484 3 34 1936.38 2135.46 37.67 0 1 0 
2485 1 34 1936.58 2126.96 38.17 0 1 0 
2486 2 34 1933.57 2126.73 35.43 0 1 0 
2487 3 34 1930.97 2126.53 33.05 0 1 0 
2488 1 34 1938.51 2124.25 36.28 0 1 0 
2489 2 34 1936.68 2121.38 38.52 0 1 0 
2490 3 34 1935.1 2118.89 40.47 0 1 0 
2491 1 34 1941.18 2121.72 35.22 0 1 0 
2492 2 34 1943.46 2122.77 38.42 0 1 0 
2493 3 34 1945.44 2123.69 41.21 0 1 0 
2494 1 34 1944.23 2120.07 33.59 0 1 0 
2495 2 34 1945.16 2123.6 31.77 0 1 0 
2496 3 34 1945.96 2126.66 30.19 0 1 0 
2497 1 34 1946.53 2118.21 31.16 0 1 0 
2498 2 34 1943.41 2117.71 28.59 0 1 0 
2499 3 34 1940.7 2117.27 26.36 0 1 0 
2500 1 34 1948.48 2115.47 29.33 0 1 0 
2505 3 34 1955.65 2115.47 33.92 0 1 0 
454 1 7 1283.42 18.2844 78.54 1 1 0 
457 1 7 1281.78 18.1744 82 1 1 0 
458 2 7 1282.2 14.1244 82.07 1 1 0 
459 3 7 1282.56 10.6044 82.13 1 1 0 
460 1 7 1279.22 17.9644 84.84 1 1 0 
461 2 7 1276.22 17.6044 82.1 1 1 0 
462 3 7 1273.62 17.2944 79.73 1 1 0 
463 1 7 1276.66 18.8544 87.53 1 1 0 
464 2 7 1277.05 22.8044 86.59 1 1 0 
466 1 7 1275.02 19.8144 90.86 1 1 0 
467 2 7 1278.68 19.8844 92.64 1 1 0 
468 3 7 1281.86 19.9344 94.19 1 1 0 
469 1 7 1273.35 19.6544 94.3 1 1 0 
470 2 7 1273.48 15.5944 94.18 1 1 0 
471 3 7 1273.59 12.0544 94.07 1 1 0 
472 1 7 1270.75 19.4944 97.1 1 1 0 
473 2 7 1267.76 19.4744 94.34 1 1 0 
474 3 7 1265.17 19.4644 91.93 1 1 0 
476 2 7 1268.9 24.3844 99.07 1 1 0 
451 1 7 1285.03 17.3144 75.37 1 1 0 
452 2 7 1285.07 18.6644 74.98 1 1 0 
453 3 7 1285.1 19.8444 74.64 1 1 0 
455 2 7 1287.07 18.6844 80.28 1 1 0 
456 3 7 1290.25 19.0444 81.79 1 1 0 
465 3 7 1277.38 26.2244 85.77 1 1 0 
477 3 7 1269.48 27.8144 98.42 1 1 0 
5934 3 80 92.3244 1507.8 90.42 1 0 0 
5946 3 80 107.094 1509.1 92.7 1 0 0 
5958 3 80 121.864 1510.44 94.95 1 0 0 
5926 1 80 85.5744 1514.5 87.22 1 0 0 
5927 2 80 84.5844 1520.06 84.49 1 0 0 
5928 3 80 83.7344 1524.88 82.12 1 0 0 
5929 1 80 89.5644 1515.04 86.89 1 0 0 
5930 2 80 89.5044 1513.24 83.24 1 0 0 
5931 3 80 89.4644 1511.68 80.07 1 0 0 
5932 1 80 93.3544 1514.56 87.07 1 0 0 
5933 2 80 92.8044 1510.94 88.87 1 0 0 
5935 1 80 96.9944 1514.58 88.24 1 0 0 
5936 2 80 95.8844 1516.46 91.68 1 0 0 
5937 3 80 94.9144 1518.08 94.67 1 0 0 
5938 1 80 100.634 1515.59 88.88 1 0 0 
5939 2 80 100.044 1519.04 86.8 1 0 0 
5940 3 80 99.5244 1522.04 85 1 0 0 
5941 1 80 104.424 1516.04 88.54 1 0 0 
5942 2 80 104.374 1513.93 85.06 1 0 0 
5943 3 80 104.324 1512.1 82.03 1 0 0 
5944 1 80 108.214 1515.53 88.79 1 0 0 
5945 2 80 107.614 1512.09 90.88 1 0 0 
5947 1 80 111.854 1515.62 89.98 1 0 0 
5948 2 80 110.734 1517.79 93.24 1 0 0 
5949 3 80 109.764 1519.68 96.07 1 0 0 
5950 1 80 115.494 1516.64 90.55 1 0 0 
5951 2 80 114.944 1519.91 88.18 1 0 0 
5952 3 80 114.474 1522.75 86.13 1 0 0 
5953 1 80 119.284 1517.03 90.2 1 0 0 
5954 2 80 119.234 1514.64 86.91 1 0 0 
5955 3 80 119.184 1512.56 84.05 1 0 0 
5956 1 80 123.064 1516.51 90.52 1 0 0 
5957 2 80 122.424 1513.26 92.89 1 0 0 
5960 2 80 125.594 1519.11 94.77 1 0 0 
5961 3 80 124.624 1521.24 97.43 1 0 0 
5959 1 80 126.704 1516.66 91.71 1 0 0 
5962 1 80 130.354 1517.7 92.22 1 0 0 
5963 2 80 129.854 1520.76 89.58 1 0 0 
5964 3 80 129.414 1523.42 87.29 1 0 0 
5965 1 80 134.154 1518.02 91.86 1 0 0 
5966 2 80 134.094 1515.35 88.78 1 0 0 
5967 3 80 134.034 1513.04 86.11 1 0 0 
5968 1 80 137.924 1517.49 92.24 1 0 0 
5969 2 80 137.234 1514.46 94.88 1 0 0 
5970 3 80 136.644 1511.83 97.16 1 0 0 
5971 1 80 141.554 1517.71 93.45 1 0 0 
5972 2 80 140.454 1520.42 96.28 1 0 0 
5973 3 80 139.494 1522.78 98.74 1 0 0 
5974 1 80 145.214 1518.75 93.88 1 0 0 
5975 2 80 144.754 1521.58 90.99 1 0 0 
5976 3 80 144.354 1524.04 88.48 1 0 0 
5977 1 80 149.014 1519 93.53 1 0 0 
5978 2 80 148.944 1516.09 90.68 1 0 0 
5979 3 80 148.884 1513.55 88.21 1 0 0 
5980 1 80 152.784 1518.47 93.97 1 0 0 
5981 2 80 152.054 1515.68 96.85 1 0 0 
5983 1 80 156.404 1518.76 95.18 1 0 0 
5984 2 80 155.314 1521.71 97.76 1 0 0 
5986 1 80 160.074 1519.79 95.54 1 0 0 
5987 2 80 159.654 1522.37 92.42 1 0 0 
5988 3 80 159.294 1524.62 89.71 1 0 0 
5989 1 80 163.884 1519.98 95.19 1 0 0 
5990 2 80 163.794 1516.84 92.61 1 0 0 
5991 3 80 163.724 1514.11 90.36 1 0 0 
5992 1 80 167.634 1519.46 95.71 1 0 0 
5993 2 80 166.864 1516.93 98.8 1 0 0 
5995 1 80 171.254 1519.81 96.9 1 0 0 
5998 1 80 174.934 1520.84 97.2 1 0 0 
5999 2 80 174.564 1523.15 93.87 1 0 0 
6000 3 80 174.234 1525.16 90.98 1 0 0 
486 3 7 1256.76 21.6344 104.17 1 1 0 
490 1 7 1258.23 22.8744 115.5 1 1 0 
493 1 7 1256.47 22.6344 118.89 1 1 0 
494 2 7 1256.03 18.6144 118.38 1 1 0 
495 3 7 1255.66 15.1244 117.93 1 1 0 
496 1 7 1253.8 22.5644 121.64 1 1 0 
497 2 7 1250.91 23.2344 118.85 1 1 0 
498 3 7 1248.4 23.8144 116.43 1 1 0 
475 1 7 1268.23 20.4344 99.82 1 1 0 
478 1 7 1266.62 21.3444 103.18 1 1 0 
479 2 7 1270.26 21.0744 104.99 1 1 0 
480 3 7 1273.42 20.8344 106.56 1 1 0 
481 1 7 1264.91 21.1444 106.6 1 1 0 
482 2 7 1264.76 17.0844 106.28 1 1 0 
483 3 7 1264.63 13.5644 106 1 1 0 
484 1 7 1262.28 21.0244 109.37 1 1 0 
485 2 7 1259.32 21.3544 106.59 1 1 0 
487 1 7 1259.8 22.0144 112.12 1 1 0 
491 2 7 1261.82 22.2544 117.32 1 1 0 
492 3 7 1264.94 21.7144 118.9 1 1 0 
500 2 7 1252.6 27.4644 124.06 1 1 0 
501 3 7 1253.68 30.8144 123.75 1 1 0 
488 2 7 1260.75 25.9344 111.56 1 1 0 
489 3 7 1261.58 29.3444 111.09 1 1 0 
5982 3 80 151.414 1513.26 99.35 1 0 0 
5985 3 80 154.364 1524.28 100 1 0 0 
5994 3 80 166.184 1514.73 101.49 1 0 0 
5996 2 80 170.184 1522.98 99.22 1 0 0 
5997 3 80 169.244 1525.74 101.23 1 0 0 
499 1 7 1251.37 23.5944 124.41 1 1 0 
502 1 7 1249.83 24.4044 127.82 1 1 0 
503 2 7 1253.35 23.4444 129.64 1 1 0 
504 3 7 1256.4 22.6144 131.21 1 1 0 
505 1 7 1248.02 24.1144 131.18 1 1 0 
506 2 7 1247.31 20.1744 130.47 1 1 0 
507 3 7 1246.7 16.7444 129.86 1 1 0 
508 1 7 1245.33 24.1044 133.91 1 1 0 
509 2 7 1242.52 25.1144 131.14 1 1 0 
511 1 7 1242.95 25.1744 136.71 1 1 0 
515 2 7 1244.85 24.6344 141.93 1 1 0 
516 3 7 1247.83 23.5144 143.49 1 1 0 
518 2 7 1238.6 21.7544 142.57 1 1 0 
519 3 7 1237.75 18.4144 141.78 1 1 0 
522 3 7 1231.81 28.1344 141.06 1 1 0 
510 3 7 1240.08 25.9844 128.73 1 1 0 
512 2 7 1244.45 28.9544 136.55 1 1 0 
513 3 7 1245.76 32.2344 136.41 1 1 0 
514 1 7 1241.43 25.9244 140.14 1 1 0 
517 1 7 1239.57 25.6044 143.48 1 1 0 
520 1 7 1236.86 25.6544 146.18 1 1 0 
521 2 7 1234.16 26.9844 143.44 1 1 0 
523 1 7 1234.53 26.7544 149.01 1 1 0 
524 2 7 1236.29 30.4144 149.04 1 1 0 
525 3 7 1237.83 33.6044 149.08 1 1 0 
44620 1 299 1333.01 1014.15 141.12 1 1 0 
44621 2 299 1331.88 1018.01 141.7 1 1 0 
44622 3 299 1330.9 1021.38 142.2 1 1 0 
44623 1 299 1329.81 1013.51 139.11 1 1 0 
44624 2 299 1327.88 1012.44 142.53 1 1 0 
44625 3 299 1326.19 1011.5 145.5 1 1 0 
44607 3 299 1351.65 1020.05 148.89 1 1 0 
44611 1 299 1340.45 1017.44 148.91 1 1 0 
44614 1 299 1337.66 1015.81 146.86 1 1 0 
44615 2 299 1339.52 1012.21 147.19 1 1 0 
44616 3 299 1341.13 1009.07 147.47 1 1 0 
44617 1 299 1335.54 1014.46 143.97 1 1 0 
44618 2 299 1338.38 1015.68 141.32 1 1 0 
44619 3 299 1340.84 1016.75 139.02 1 1 0 
44588 2 299 1359.48 1025.19 171.88 1 1 0 
44590 1 299 1358.86 1023.74 166.52 1 1 0 
44593 1 299 1356.71 1022.28 163.71 1 1 0 
44596 1 299 1354.27 1021.89 160.78 1 1 0 
44597 2 299 1353.57 1025.9 160.84 1 1 0 
44598 3 299 1352.96 1029.39 160.89 1 1 0 
44599 1 299 1351.1 1021.37 158.7 1 1 0 
44600 2 299 1348.93 1020.94 162.12 1 1 0 
44601 3 299 1347.04 1020.57 165.09 1 1 0 
44602 1 299 1348.26 1019.77 156.69 1 1 0 
44603 2 299 1349.9 1016.1 157.28 1 1 0 
44604 3 299 1351.33 1012.9 157.79 1 1 0 
44605 1 299 1346.13 1018.37 153.84 1 1 0 
44606 2 299 1349.08 1019.27 151.19 1 1 0 
44608 1 299 1343.64 1018.02 150.95 1 1 0 
44609 2 299 1342.72 1021.97 151.27 1 1 0 
44610 3 299 1341.92 1025.41 151.54 1 1 0 
44612 2 299 1338.39 1016.69 152.33 1 1 0 
44613 3 299 1336.6 1016.03 155.31 1 1 0 
44581 1 299 1367.29 1026.19 173.57 1 1 0 
44582 2 299 1370.43 1026.43 170.99 1 1 0 
44583 3 299 1373.16 1026.63 168.74 1 1 0 
44584 1 299 1364.89 1025.76 170.62 1 1 0 
44585 2 299 1364.42 1029.8 170.42 1 1 0 
44587 1 299 1361.74 1025.29 168.5 1 1 0 
44591 2 299 1360.28 1020.02 167.37 1 1 0 
44592 3 299 1361.51 1016.78 168.1 1 1 0 
44594 2 299 1359.77 1022.85 161.08 1 1 0 
44595 3 299 1362.42 1023.34 158.79 1 1 0 
44586 3 299 1364.01 1033.31 170.24 1 1 0 
8484 3 114 436.85 1659.74 166.26 0 0 0 
8476 1 114 433.98 1665.71 158.96 0 0 0 
8477 2 114 433.8 1667.58 158.26 0 0 0 
8478 3 114 433.63 1669.19 157.65 0 0 0 
8479 1 114 435.48 1667.04 162.08 0 0 0 
8480 2 114 439.18 1666.79 160.42 0 0 0 
8481 3 114 442.4 1666.57 158.97 0 0 0 
8482 1 114 437.06 1667.32 165.56 0 0 0 
8483 2 114 436.95 1663.26 165.93 0 0 0 
8485 1 114 437.56 1667.65 169.34 0 0 0 
8486 2 114 433.52 1667.81 169.86 0 0 0 
8487 3 114 430.02 1667.94 170.32 0 0 0 
8488 1 114 438.07 1669.07 172.86 0 0 0 
8489 2 114 438.02 1672.85 171.34 0 0 0 
8490 3 114 437.97 1676.13 170.01 0 0 0 
8493 3 114 446.58 1669.3 173.12 0 0 0 
44589 3 299 1357.51 1025.11 174.82 1 1 0 
44566 1 299 1380.07 1031.66 186.17 1 1 0 
44567 2 299 1381.02 1027.94 187.52 1 1 0 
44568 3 299 1381.85 1024.71 188.69 1 1 0 
44569 1 299 1377.88 1030.11 183.44 1 1 0 
44570 2 299 1381.07 1030.01 180.92 1 1 0 
44571 3 299 1383.85 1029.93 178.73 1 1 0 
44572 1 299 1375.52 1029.63 180.46 1 1 0 
44575 1 299 1372.39 1029.21 178.29 1 1 0 
44576 2 299 1370.05 1029.44 181.62 1 1 0 
44577 3 299 1368.02 1029.65 184.51 1 1 0 
44578 1 299 1369.46 1027.7 176.34 1 1 0 
44579 2 299 1370.65 1023.96 177.45 1 1 0 
44580 3 299 1371.69 1020.72 178.4 1 1 0 
44555 2 299 1391.39 1031.95 197.58 1 1 0 
44556 3 299 1392.01 1028.75 198.97 1 1 0 
44563 1 299 1383.04 1033.12 188.09 1 1 0 
44564 2 299 1380.65 1033.69 191.34 1 1 0 
44565 3 299 1378.58 1034.19 194.16 1 1 0 
44573 2 299 1375.28 1033.67 180.01 1 1 0 
44574 3 299 1375.07 1037.18 179.61 1 1 0 
44547 3 299 1405.13 1036.55 198.83 1 1 0 
44549 2 299 1397 1041.33 199.21 1 1 0 
44550 3 299 1397.21 1044.77 198.39 1 1 0 
44551 1 299 1393.68 1037.03 197.89 1 1 0 
44554 1 299 1390.68 1035.62 195.98 1 1 0 
44557 1 299 1388.46 1034.03 193.3 1 1 0 
44558 2 299 1391.7 1033.6 190.87 1 1 0 
44559 3 299 1394.51 1033.23 188.76 1 1 0 
44560 1 299 1386.14 1033.51 190.3 1 1 0 
44561 2 299 1386.14 1037.52 189.6 1 1 0 
44562 3 299 1386.14 1041 188.99 1 1 0 
8491 1 114 439.65 1670.39 176.08 0 0 0 
8492 2 114 443.36 1669.81 174.5 0 0 0 
8494 1 114 441.19 1670.63 179.58 0 0 0 
8495 2 114 440.75 1666.61 180.04 0 0 0 
8496 3 114 440.37 1663.11 180.45 0 0 0 
8497 1 114 441.65 1671.01 183.36 0 0 0 
8498 2 114 437.63 1671.5 183.8 0 0 0 
8499 3 114 434.14 1671.93 184.18 0 0 0 
8500 1 114 442.21 1672.48 186.86 0 0 0 
8501 2 114 442.48 1676.21 185.25 0 0 0 
8502 3 114 442.73 1679.45 183.85 0 0 0 
8503 1 114 443.83 1673.74 190.08 0 0 0 
8504 2 114 447.51 1672.82 188.59 0 0 0 
8505 3 114 450.7 1672.03 187.29 0 0 0 
8506 1 114 445.32 1673.94 193.6 0 0 0 
8507 2 114 444.55 1669.98 194.15 0 0 0 
8508 3 114 443.88 1666.54 194.62 0 0 0 
8509 1 114 445.74 1674.38 197.38 0 0 0 
8510 2 114 441.76 1675.2 197.73 0 0 0 
8511 3 114 438.31 1675.91 198.03 0 0 0 
8513 2 114 446.95 1679.54 199.17 0 0 0 
8514 3 114 447.48 1682.71 197.7 0 0 0 
36289 1 262 1006.2 111.144 218.12 0 1 0 
36290 2 262 1006.59 107.094 218.06 0 1 0 
36291 3 262 1006.93 103.574 218.01 0 1 0 
36292 1 262 1003.57 110.934 215.35 0 1 0 
36293 2 262 1006.5 111.254 212.54 0 1 0 
36295 1 262 1000.94 111.834 212.71 0 1 0 
36296 2 262 1001.38 115.774 213.62 0 1 0 
36297 3 262 1001.75 119.204 214.41 0 1 0 
36298 1 262 997.63 112.604 210.95 0 1 0 
36299 2 262 995.63 112.014 214.44 0 1 0 
36300 3 262 993.9 111.504 217.48 0 1 0 
36281 2 262 1018.31 109.744 221.65 0 1 0 
36282 3 262 1020.85 109.724 219.19 0 1 0 
36283 1 262 1012.79 110.614 221.8 0 1 0 
36284 2 262 1013.44 114.584 222.45 0 1 0 
36285 3 262 1014 118.034 223 0 1 0 
36286 1 262 1009.51 111.434 220.01 0 1 0 
36287 2 262 1007.51 111.194 223.55 0 1 0 
36294 3 262 1009.05 111.544 210.1 0 1 0 
44533 1 299 1409.62 1041.89 213.03 1 1 0 
44536 1 299 1407.37 1041.25 210 1 1 0 
44537 2 299 1407.86 1045.12 208.83 1 1 0 
44538 3 299 1408.28 1048.48 207.81 1 1 0 
44539 1 299 1404.33 1040.94 207.69 1 1 0 
44540 2 299 1401.91 1042.16 210.72 1 1 0 
44541 3 299 1399.8 1043.22 213.36 1 1 0 
44542 1 299 1401.29 1039.58 205.8 1 1 0 
44543 2 299 1401.76 1035.98 207.63 1 1 0 
44544 3 299 1402.17 1032.84 209.22 1 1 0 
44545 1 299 1399.04 1037.96 203.17 1 1 0 
44546 2 299 1402.3 1037.2 200.85 1 1 0 
44548 1 299 1396.76 1037.38 200.15 1 1 0 
44552 2 299 1391.27 1037.93 201.04 1 1 0 
44553 3 299 1389.17 1038.71 203.78 1 1 0 
44521 1 299 1420.2 1045.82 222.89 1 1 0 
44522 2 299 1423.44 1044.43 220.84 1 1 0 
44523 3 299 1426.25 1043.23 219.07 1 1 0 
44524 1 299 1417.98 1045.13 219.85 1 1 0 
44525 2 299 1418.71 1048.88 218.46 1 1 0 
44526 3 299 1419.35 1052.15 217.25 1 1 0 
44527 1 299 1414.98 1044.84 217.49 1 1 0 
44528 2 299 1412.56 1046.38 220.38 1 1 0 
44529 3 299 1410.47 1047.72 222.9 1 1 0 
44530 1 299 1411.91 1043.55 215.61 1 1 0 
44531 2 299 1412.13 1040.04 217.67 1 1 0 
44532 3 299 1412.33 1036.99 219.45 1 1 0 
44534 2 299 1412.88 1040.81 210.84 1 1 0 
44535 3 299 1415.71 1039.88 208.93 1 1 0 
8512 1 114 446.35 1675.88 200.85 0 0 0 
8515 1 114 448.01 1677.09 204.08 0 0 0 
8516 2 114 451.63 1675.85 202.68 0 0 0 
8518 1 114 449.44 1677.26 207.63 0 0 0 
8519 2 114 448.35 1673.38 208.25 0 0 0 
8520 3 114 447.4 1670.02 208.79 0 0 0 
8521 1 114 449.83 1677.75 211.4 0 0 0 
8522 2 114 445.93 1678.89 211.65 0 0 0 
8523 3 114 442.54 1679.89 211.87 0 0 0 
8524 1 114 450.49 1679.28 214.85 0 0 0 
8525 2 114 451.42 1682.84 213.09 0 0 0 
8526 3 114 452.23 1685.92 211.57 0 0 0 
8527 1 114 452.19 1680.44 218.08 0 0 0 
8531 2 114 452.15 1676.82 222.34 0 0 0 
8532 3 114 450.92 1673.55 222.94 0 0 0 
8517 3 114 454.77 1674.76 201.47 0 0 0 
8528 2 114 455.72 1678.87 216.78 0 0 0 
8529 3 114 458.78 1677.51 215.66 0 0 0 
8530 1 114 453.56 1680.57 221.65 0 0 0 
36255 3 262 1041.33 100.314 246.85 0 1 0 
36288 3 262 1005.78 110.984 226.63 0 1 0 
36263 2 262 1031.33 109.534 241.69 0 1 0 
36264 3 262 1029.64 109.924 244.78 0 1 0 
36265 1 262 1029.9 108.904 236.33 0 1 0 
36266 2 262 1029.88 104.854 236.82 0 1 0 
36267 3 262 1029.85 101.344 237.24 0 1 0 
36268 1 262 1027.21 108.594 233.63 0 1 0 
36269 2 262 1030.1 108.234 230.78 0 1 0 
36271 1 262 1024.64 109.394 230.91 0 1 0 
36272 2 262 1025.49 113.364 231.27 0 1 0 
36273 3 262 1026.24 116.804 231.59 0 1 0 
36274 1 262 1021.39 110.274 229.08 0 1 0 
36275 2 262 1019.41 110.364 232.63 0 1 0 
36276 3 262 1017.69 110.454 235.73 0 1 0 
36277 1 262 1018.05 110.024 227.23 0 1 0 
36278 2 262 1018.23 105.964 227.44 0 1 0 
36279 3 262 1018.39 102.434 227.62 0 1 0 
36280 1 262 1015.39 109.764 224.49 0 1 0 
36245 2 262 1053.64 105.224 249.12 0 1 0 
36246 3 262 1056.05 104.324 246.7 0 1 0 
36247 1 262 1048.33 106.964 249.12 0 1 0 
36248 2 262 1049.59 110.834 248.94 0 1 0 
36249 3 262 1050.69 114.194 248.78 0 1 0 
36250 1 262 1045.15 107.914 247.21 0 1 0 
36253 1 262 1041.76 107.774 245.43 0 1 0 
36254 2 262 1041.53 103.784 246.19 0 1 0 
36256 1 262 1039.03 107.424 242.77 0 1 0 
36257 2 262 1041.88 106.724 239.94 0 1 0 
36258 3 262 1044.35 106.114 237.49 0 1 0 
36259 1 262 1036.48 108.184 240.01 0 1 0 
36260 2 262 1037.55 112.114 240.1 0 1 0 
36261 3 262 1038.47 115.524 240.18 0 1 0 
36262 1 262 1033.27 109.094 238.14 0 1 0 
36270 3 262 1032.62 107.914 228.31 0 1 0 
10419 3 139 2032.71 981.46 234.23 0 0 0 
10359 3 139 1962.12 1004.41 245.06 0 0 0 
10369 1 139 1979.34 1006.46 241.28 0 0 0 
10370 2 139 1977.67 1002.85 242.16 0 0 0 
10371 3 139 1976.21 999.72 242.92 0 0 0 
10372 1 139 1982.81 1004.84 241.23 0 0 0 
10373 2 139 1983.23 1005.61 245.2 0 0 0 
10374 3 139 1983.59 1006.28 248.66 0 0 0 
10375 1 139 1986.58 1004.26 240.94 0 0 0 
10379 2 139 1988.52 1002.94 235.87 0 0 0 
10380 3 139 1987.16 1002.45 232.64 0 0 0 
10378 1 139 1990.08 1003.51 239.58 0 0 0 
10381 1 139 1993.29 1001.71 238.51 0 0 0 
10382 2 139 1991.7 998.16 239.72 0 0 0 
10383 3 139 1990.32 995.08 240.77 0 0 0 
10384 1 139 1996.78 1000.14 238.49 0 0 0 
10385 2 139 1997.29 1001.23 242.38 0 0 0 
10386 3 139 1997.73 1002.19 245.76 0 0 0 
10387 1 139 2000.55 999.6 238.15 0 0 0 
10388 2 139 2001 1003.48 237 0 0 0 
10389 3 139 2001.38 1006.85 236 0 0 0 
10390 1 139 2004.03 998.79 236.76 0 0 0 
10391 2 139 2002.38 997.91 233.15 0 0 0 
10392 3 139 2000.94 997.14 230.01 0 0 0 
10393 1 139 2007.23 996.96 235.75 0 0 0 
10394 2 139 2005.73 993.5 237.28 0 0 0 
10395 3 139 2004.43 990.49 238.61 0 0 0 
10396 1 139 2010.75 995.45 235.76 0 0 0 
10397 2 139 2011.34 996.86 239.53 0 0 0 
10398 3 139 2011.86 998.08 242.81 0 0 0 
10399 1 139 2014.52 994.94 235.36 0 0 0 
10400 2 139 2014.87 998.72 233.89 0 0 0 
10401 3 139 2015.17 1002.01 232.61 0 0 0 
10402 1 139 2017.97 994.07 233.94 0 0 0 
10403 2 139 2016.24 992.88 230.46 0 0 0 
10404 3 139 2014.74 991.84 227.43 0 0 0 
10405 1 139 2021.18 992.21 232.99 0 0 0 
10406 2 139 2019.78 988.86 234.83 0 0 0 
10407 3 139 2018.57 985.95 236.43 0 0 0 
10408 1 139 2024.72 990.76 233.03 0 0 0 
10409 2 139 2025.39 992.47 236.66 0 0 0 
10410 3 139 2025.97 993.96 239.81 0 0 0 
10411 1 139 2028.49 990.28 232.56 0 0 0 
10412 2 139 2028.73 993.93 230.79 0 0 0 
10413 3 139 2028.95 997.11 229.25 0 0 0 
10414 1 139 2031.91 989.35 231.12 0 0 0 
10415 2 139 2030.11 987.86 227.79 0 0 0 
10416 3 139 2028.55 986.56 224.9 0 0 0 
10417 1 139 2035.13 987.47 230.23 0 0 0 
10418 2 139 2033.83 984.25 232.37 0 0 0 
10420 1 139 2038.69 986.07 230.29 0 0 0 
10421 2 139 2039.42 988.08 233.75 0 0 0 
10422 3 139 2040.06 989.83 236.76 0 0 0 
10423 1 139 2042.45 985.61 229.76 0 0 0 
10424 2 139 2042.59 989.12 227.69 0 0 0 
10425 3 139 2042.71 992.17 225.9 0 0 0 
10351 1 139 1958.19 1013.67 246.67 0 0 0 
10352 2 139 1959.6 1021.95 246.35 0 0 0 
10353 3 139 1960.84 1029.14 246.07 0 0 0 
10354 1 139 1962.19 1012.93 245.23 0 0 0 
10355 2 139 1960.82 1013.01 241.4 0 0 0 
10356 3 139 1959.63 1013.09 238.06 0 0 0 
10358 2 139 1963.65 1007.57 244.59 0 0 0 
10357 1 139 1965.4 1011.21 244.05 0 0 0 
10360 1 139 1968.84 1009.54 243.96 0 0 0 
10361 2 139 1969.16 1009.98 247.99 0 0 0 
10363 1 139 1972.61 1008.93 243.73 0 0 0 
10364 2 139 1973.23 1012.92 243.23 0 0 0 
10365 3 139 1973.76 1016.39 242.81 0 0 0 
10366 1 139 1976.14 1008.22 242.41 0 0 0 
10367 2 139 1974.67 1007.98 238.62 0 0 0 
10368 3 139 1973.39 1007.77 235.32 0 0 0 
10376 2 139 1987.12 1008.22 240.12 0 0 0 
10377 3 139 1987.58 1011.65 239.4 0 0 0 
44504 2 299 1433.94 1054.77 239.66 1 1 0 
44505 3 299 1431.92 1056.63 241.89 1 1 0 
44506 1 299 1433.14 1051.46 235.23 1 1 0 
44507 2 299 1432.89 1048.23 237.69 1 1 0 
44508 3 299 1432.67 1045.42 239.83 1 1 0 
44509 1 299 1430.78 1049.76 232.75 1 1 0 
44510 2 299 1433.98 1048.07 230.87 1 1 0 
44512 1 299 1428.59 1049 229.7 1 1 0 
44513 2 299 1429.57 1052.62 228.11 1 1 0 
44514 3 299 1430.41 1055.77 226.72 1 1 0 
44515 1 299 1425.63 1048.74 227.29 1 1 0 
44516 2 299 1423.24 1050.58 230.03 1 1 0 
44517 3 299 1421.17 1052.19 232.41 1 1 0 
44518 1 299 1422.52 1047.5 225.42 1 1 0 
44519 2 299 1422.51 1044.12 227.69 1 1 0 
44520 3 299 1422.49 1041.18 229.66 1 1 0 
44488 1 299 1449.8 1056.76 249.41 1 1 0 
44491 1 299 1446.92 1056.53 246.9 1 1 0 
44494 1 299 1443.77 1055.42 245.04 1 1 0 
44495 2 299 1443.28 1052.36 247.68 1 1 0 
44497 1 299 1441.37 1053.7 242.6 1 1 0 
44498 2 299 1444.5 1051.72 240.91 1 1 0 
44499 3 299 1447.22 1050.01 239.43 1 1 0 
44500 1 299 1439.2 1052.88 239.55 1 1 0 
44501 2 299 1440.41 1056.34 237.77 1 1 0 
44503 1 299 1436.27 1052.64 237.1 1 1 0 
44511 3 299 1436.75 1046.61 229.23 1 1 0 
44489 2 299 1451.24 1060.03 247.45 1 1 0 
44490 3 299 1452.49 1062.87 245.75 1 1 0 
44492 2 299 1444.66 1058.95 249.28 1 1 0 
44502 3 299 1441.46 1059.34 236.22 1 1 0 
8534 2 114 450.12 1682.58 225.57 0 0 0 
8535 3 114 446.81 1683.85 225.69 0 0 0 
8533 1 114 453.92 1681.13 225.42 0 0 0 
8536 1 114 454.64 1682.68 228.85 0 0 0 
8537 2 114 455.88 1686.11 227.03 0 0 0 
8539 1 114 456.37 1683.78 232.08 0 0 0 
8540 2 114 459.78 1681.9 230.89 0 0 0 
8541 3 114 462.75 1680.28 229.86 0 0 0 
8542 1 114 457.68 1683.89 235.68 0 0 0 
8543 2 114 455.96 1680.27 236.42 0 0 0 
8544 3 114 454.46 1677.13 237.07 0 0 0 
8545 1 114 458.01 1684.51 239.44 0 0 0 
8546 2 114 454.34 1686.26 239.47 0 0 0 
8548 1 114 458.79 1686.08 242.84 0 0 0 
8547 3 114 451.14 1687.79 239.5 0 0 0 
8538 3 114 456.96 1689.08 225.45 0 0 0 
8549 2 114 460.34 1689.35 240.97 0 0 0 
8550 3 114 461.68 1692.19 239.35 0 0 0 
36243 3 262 1052.81 99.3344 256.45 0 1 0 
36231 3 262 1064.31 98.4044 266.04 0 1 0 
36238 1 262 1057.02 106.734 256.27 0 1 0 
36239 2 262 1055.21 107.854 259.75 0 1 0 
36240 3 262 1053.64 108.814 262.76 0 1 0 
36241 1 262 1053.62 106.654 254.53 0 1 0 
36242 2 262 1053.19 102.734 255.56 0 1 0 
36244 1 262 1050.85 106.264 251.91 0 1 0 
36251 2 262 1043.26 108.694 250.73 0 1 0 
36252 3 262 1041.63 109.374 253.79 0 1 0 
36214 1 262 1080.78 104.364 274.41 0 1 0 
36217 1 262 1077.35 104.394 272.71 0 1 0 
36218 2 262 1076.53 100.724 274.26 0 1 0 
36220 1 262 1074.5 103.954 270.18 0 1 0 
36221 2 262 1077.11 102.264 267.55 0 1 0 
36222 3 262 1079.37 100.804 265.26 0 1 0 
36223 1 262 1072 104.534 267.34 0 1 0 
36224 2 262 1073.65 108.194 266.63 0 1 0 
36225 3 262 1075.09 111.364 266.02 0 1 0 
36226 1 262 1068.9 105.554 265.34 0 1 0 
36227 2 262 1067.18 106.984 268.74 0 1 0 
36228 3 262 1065.68 108.244 271.69 0 1 0 
36229 1 262 1065.48 105.524 263.62 0 1 0 
36230 2 262 1064.86 101.714 264.91 0 1 0 
36232 1 262 1062.68 105.114 261.05 0 1 0 
36233 2 262 1065.38 103.744 258.32 0 1 0 
36234 3 262 1067.73 102.554 255.96 0 1 0 
36235 1 262 1060.16 105.754 258.23 0 1 0 
36236 2 262 1061.63 109.524 257.78 0 1 0 
36237 3 262 1062.9 112.804 257.39 0 1 0 
10362 3 139 1969.44 1010.37 251.5 0 0 0 
44483 2 299 1453.68 1056.51 257.65 1 1 0 
44484 3 299 1453.05 1054.03 260.09 1 1 0 
44486 2 299 1455 1055.4 250.96 1 1 0 
44487 3 299 1457.65 1053.45 249.65 1 1 0 
44496 3 299 1442.85 1049.71 249.98 1 1 0 
44475 3 299 1468.04 1056.92 259.9 1 1 0 
44479 1 299 1457.57 1060.42 256.71 1 1 0 
44480 2 299 1455.4 1063.1 258.88 1 1 0 
44481 3 299 1453.52 1065.42 260.77 1 1 0 
44482 1 299 1454.39 1059.37 254.84 1 1 0 
44485 1 299 1451.95 1057.64 252.46 1 1 0 
44493 3 299 1442.7 1061.05 251.34 1 1 0 
44458 1 299 1475.65 1067.27 274.44 1 1 0 
44461 1 299 1473.12 1065.54 272.16 1 1 0 
44462 2 299 1475.95 1062.81 271.09 1 1 0 
44463 3 299 1478.4 1060.43 270.17 1 1 0 
44464 1 299 1471 1064.53 269.13 1 1 0 
44465 2 299 1472.88 1067.35 266.88 1 1 0 
44466 3 299 1474.51 1069.81 264.92 1 1 0 
44467 1 299 1468.21 1064.3 266.52 1 1 0 
44468 2 299 1466.15 1067.23 268.48 1 1 0 
44469 3 299 1464.37 1069.77 270.17 1 1 0 
44470 1 299 1465.02 1063.32 264.64 1 1 0 
44471 2 299 1464.09 1060.69 267.6 1 1 0 
44472 3 299 1463.27 1058.4 270.17 1 1 0 
44473 1 299 1462.53 1061.59 262.31 1 1 0 
44474 2 299 1465.48 1059.09 261.02 1 1 0 
44476 1 299 1460.41 1060.64 259.27 1 1 0 
44477 2 299 1462.07 1063.7 257.16 1 1 0 
44478 3 299 1463.51 1066.35 255.32 1 1 0 
25483 1 214 1347.55 2100.1 273.2 1 0 0 
25484 2 214 1348.21 2103.93 271.99 1 0 0 
25485 3 214 1348.79 2107.26 270.94 1 0 0 
25486 1 214 1348.32 2098.85 269.67 1 0 0 
25487 2 214 1344.39 2099.21 268.68 1 0 0 
25488 3 214 1340.97 2099.53 267.83 1 0 0 
25489 1 214 1348.88 2096.61 266.61 1 0 0 
25490 2 214 1348.01 2093.32 268.86 1 0 0 
25491 3 214 1347.25 2090.47 270.82 1 0 0 
25492 1 214 1350.48 2094.36 263.96 1 0 0 
25493 2 214 1354.07 2094.7 265.84 1 0 0 
25494 3 214 1357.2 2095 267.48 1 0 0 
25495 1 214 1352.25 2093.11 260.8 1 0 0 
25496 2 214 1352.59 2096.94 259.47 1 0 0 
25497 3 214 1352.88 2100.27 258.31 1 0 0 
25498 1 214 1352.97 2091.82 257.27 1 0 0 
25499 2 214 1348.98 2091.88 256.44 1 0 0 
25500 3 214 1345.52 2091.93 255.72 1 0 0 
36219 3 262 1075.83 97.5344 275.61 0 1 0 
36194 2 262 1099.93 98.8144 292.92 0 1 0 
36195 3 262 1098.93 95.9244 294.7 0 1 0 
36197 2 262 1100.52 99.3744 286.06 0 1 0 
36198 3 262 1102.57 97.3844 283.97 0 1 0 
36206 2 262 1088.22 99.7544 283.6 0 1 0 
36207 3 262 1087.37 96.7044 285.17 0 1 0 
36210 3 262 1090.98 99.0744 274.6 0 1 0 
36184 1 262 1109.98 100.524 297.59 0 1 0 
36185 2 262 1112.21 97.9544 295.34 0 1 0 
36186 3 262 1114.13 95.7244 293.39 0 1 0 
36215 2 262 1079.16 106.114 277.71 0 1 0 
36216 3 262 1077.75 107.634 280.58 0 1 0 
36187 1 262 1107.5 100.904 294.7 0 1 0 
36190 1 262 1104.52 101.974 292.55 0 1 0 
36191 2 262 1103.16 104.314 295.59 0 1 0 
36192 3 262 1101.98 106.344 298.24 0 1 0 
36193 1 262 1101.08 102.144 290.88 0 1 0 
36196 1 262 1098.16 101.664 288.46 0 1 0 
36199 1 262 1095.67 102.114 285.58 0 1 0 
36200 2 262 1097.67 105.444 284.37 0 1 0 
36201 3 262 1099.41 108.344 283.32 0 1 0 
36202 1 262 1092.65 103.164 283.48 0 1 0 
36203 2 262 1091.15 105.224 286.66 0 1 0 
36204 3 262 1089.85 107.004 289.43 0 1 0 
36205 1 262 1089.21 103.274 281.8 0 1 0 
36208 1 262 1086.33 102.804 279.32 0 1 0 
36209 2 262 1088.82 100.814 276.79 0 1 0 
36211 1 262 1083.84 103.324 276.46 0 1 0 
36212 2 262 1085.67 106.834 275.5 0 1 0 
36213 3 262 1087.26 109.874 274.66 0 1 0 
36188 2 262 1109.67 104.044 293.26 0 1 0 
36189 3 262 1111.54 106.764 292.01 0 1 0 
44447 2 299 1484.95 1069.08 287.44 1 1 0 
44448 3 299 1483.78 1067.23 290.22 1 1 0 
44449 1 299 1483.71 1069.49 282.01 1 1 0 
44452 1 299 1481.6 1068.41 278.99 1 1 0 
44453 2 299 1483.68 1070.99 276.62 1 1 0 
44455 1 299 1478.85 1068.19 276.34 1 1 0 
44456 2 299 1476.93 1071.33 278.06 1 1 0 
44457 3 299 1475.25 1074.07 279.56 1 1 0 
44459 2 299 1474.51 1064.88 277.53 1 1 0 
44460 3 299 1473.51 1062.8 280.22 1 1 0 
44428 1 299 1502.79 1076.2 298.72 1 1 0 
44429 2 299 1505.24 1078.22 296.17 1 1 0 
44430 3 299 1507.36 1079.97 293.96 1 1 0 
44431 1 299 1500.13 1075.95 295.98 1 1 0 
44432 2 299 1498.52 1079.47 297.21 1 1 0 
44433 3 299 1497.11 1082.54 298.29 1 1 0 
44434 1 299 1496.92 1075.16 294.04 1 1 0 
44435 2 299 1495.4 1073.3 297.33 1 1 0 
44437 1 299 1494.3 1073.44 291.85 1 1 0 
44438 2 299 1496.83 1070.31 291.26 1 1 0 
44439 3 299 1499.03 1067.59 290.75 1 1 0 
44440 1 299 1492.19 1072.3 288.86 1 1 0 
44441 2 299 1494.47 1074.61 286.39 1 1 0 
44442 3 299 1496.44 1076.61 284.24 1 1 0 
44443 1 299 1489.49 1072.07 286.16 1 1 0 
44444 2 299 1487.71 1075.42 287.64 1 1 0 
44445 3 299 1486.17 1078.33 288.93 1 1 0 
44446 1 299 1486.29 1071.21 284.24 1 1 0 
44450 2 299 1486.4 1066.55 281.17 1 1 0 
44451 3 299 1488.73 1063.99 280.45 1 1 0 
44454 3 299 1485.49 1073.22 274.56 1 1 0 
5701 1 77 2055.18 1301.42 284.63 1 0 0 
5702 2 77 2054.61 1305.23 285.12 1 0 0 
5703 3 77 2054.11 1308.53 285.55 1 0 0 
5704 1 77 2054.17 1300.8 288.25 1 0 0 
5705 2 77 2058.05 1301.23 289.41 1 0 0 
5706 3 77 2061.42 1301.61 290.42 1 0 0 
5707 1 77 2053.36 1299.11 291.59 1 0 0 
5708 2 77 2054.25 1295.48 289.98 1 0 0 
5709 3 77 2055.02 1292.33 288.58 1 0 0 
5710 1 77 2051.53 1297.38 294.48 1 0 0 
5711 2 77 2048.07 1297.49 292.34 1 0 0 
5712 3 77 2045.06 1297.58 290.49 1 0 0 
5713 1 77 2049.54 1296.72 297.68 1 0 0 
5714 2 77 2049.25 1300.73 298.34 1 0 0 
5715 3 77 2049 1304.21 298.91 1 0 0 
25464 3 214 1332.03 2114.71 292.12 1 0 0 
25459 1 214 1338.15 2114.07 298 1 0 0 
25462 1 214 1339.03 2112.9 294.47 1 0 0 
25463 2 214 1335.28 2113.87 293.21 1 0 0 
25465 1 214 1339.53 2110.75 291.34 1 0 0 
25466 2 214 1338.03 2107.52 293.31 1 0 0 
25467 3 214 1336.72 2104.72 295.03 1 0 0 
25468 1 214 1341.02 2108.43 288.68 1 0 0 
25469 2 214 1344.46 2108.16 290.85 1 0 0 
25470 3 214 1347.44 2107.93 292.73 1 0 0 
25471 1 214 1342.86 2107.09 285.6 1 0 0 
25472 2 214 1343.83 2110.89 284.53 1 0 0 
25473 3 214 1344.68 2114.19 283.59 1 0 0 
25474 1 214 1343.68 2105.87 282.07 1 0 0 
25475 2 214 1339.82 2106.54 280.94 1 0 0 
25476 3 214 1336.47 2107.13 279.96 1 0 0 
25477 1 214 1344.2 2103.68 278.97 1 0 0 
25478 2 214 1343.01 2100.41 281.09 1 0 0 